<?xml version="1.0" encoding="UTF-8"?>

<!-- generated on 2024-07-18 00:09:36 by Eclipse SUMO GUI Version 1.20.0
<configuration xmlns:xsi="http://www.w3.org/2001/XMLSchema-instance" xsi:noNamespaceSchemaLocation="http://sumo.dlr.de/xsd/sumoConfiguration.xsd">

    <input>
        <net-file value="maps/city1.net.xml"/>
        <route-files value="maps/city1.rou.xml"/>
    </input>

    <output>
        <tripinfo-output value="tripinfo.xml"/>
    </output>

    <time>
        <begin value="0"/>
        <end value="200"/>
    </time>

    <report>
        <verbose value="true"/>
        <no-step-log value="true"/>
    </report>

    <traci_server>
        <remote-port value="65118"/>
    </traci_server>

</configuration>
-->

<tripinfos xmlns:xsi="http://www.w3.org/2001/XMLSchema-instance" xsi:noNamespaceSchemaLocation="http://sumo.dlr.de/xsd/tripinfo_file.xsd">
    <tripinfo id="13" depart="13.00" departLane="-gneE14_0" departPos="5.10" departSpeed="0.00" departDelay="0.00" arrival="23.00" arrivalLane="-gneE14_0" arrivalPos="89.60" arrivalSpeed="14.27" duration="10.00" routeLength="84.50" waitingTime="0.00" waitingCount="0" stopTime="0.00" timeLoss="3.61" rerouteNo="0" devices="tripinfo_13" vType="DEFAULT_VEHTYPE" speedFactor="1.09" vaporized=""/>
    <tripinfo id="4" depart="4.00" departLane="-gneE5_0" departPos="5.10" departSpeed="0.00" departDelay="0.00" arrival="55.00" arrivalLane="-gneE1_0" arrivalPos="85.60" arrivalSpeed="12.98" duration="51.00" routeLength="374.92" waitingTime="12.00" waitingCount="1" stopTime="0.00" timeLoss="22.37" rerouteNo="0" devices="tripinfo_4" vType="DEFAULT_VEHTYPE" speedFactor="1.01" vaporized=""/>
    <tripinfo id="0" depart="0.00" departLane="gneE18_0" departPos="5.10" departSpeed="0.00" departDelay="0.00" arrival="71.00" arrivalLane="-gneE1_0" arrivalPos="85.60" arrivalSpeed="14.06" duration="71.00" routeLength="682.01" waitingTime="7.00" waitingCount="1" stopTime="0.00" timeLoss="22.51" rerouteNo="0" devices="tripinfo_0" vType="DEFAULT_VEHTYPE" speedFactor="1.06" vaporized=""/>
    <tripinfo id="6" depart="6.00" departLane="-gneE10_0" departPos="5.10" departSpeed="0.00" departDelay="0.00" arrival="78.00" arrivalLane="-gneE21_0" arrivalPos="87.62" arrivalSpeed="13.69" duration="72.00" routeLength="780.42" waitingTime="0.00" waitingCount="0" stopTime="0.00" timeLoss="15.76" rerouteNo="0" devices="tripinfo_6" vType="DEFAULT_VEHTYPE" speedFactor="1.03" vaporized=""/>
    <tripinfo id="9" depart="9.00" departLane="gneE3_0" departPos="5.10" departSpeed="0.00" departDelay="0.00" arrival="79.00" arrivalLane="-gneE0_0" arrivalPos="92.80" arrivalSpeed="11.76" duration="70.00" routeLength="671.38" waitingTime="0.00" waitingCount="0" stopTime="0.00" timeLoss="11.67" rerouteNo="0" devices="tripinfo_9" vType="DEFAULT_VEHTYPE" speedFactor="0.89" vaporized=""/>
    <tripinfo id="7" depart="7.00" departLane="gneE19_0" departPos="5.10" departSpeed="0.00" departDelay="0.00" arrival="81.00" arrivalLane="gneE11_0" arrivalPos="92.80" arrivalSpeed="11.17" duration="74.00" routeLength="678.58" waitingTime="0.00" waitingCount="0" stopTime="0.00" timeLoss="11.68" rerouteNo="0" devices="tripinfo_7" vType="DEFAULT_VEHTYPE" speedFactor="0.83" vaporized=""/>
    <tripinfo id="52" depart="52.00" departLane="-gneE29_0" departPos="5.10" departSpeed="0.00" departDelay="0.00" arrival="96.00" arrivalLane="gneE21_0" arrivalPos="87.62" arrivalSpeed="7.21" duration="44.00" routeLength="413.15" waitingTime="1.00" waitingCount="1" stopTime="0.00" timeLoss="15.89" rerouteNo="0" devices="tripinfo_52" vType="DEFAULT_VEHTYPE" speedFactor="1.10" vaporized=""/>
    <tripinfo id="53" depart="53.00" departLane="-gneE18_0" departPos="5.10" departSpeed="0.00" departDelay="0.00" arrival="96.00" arrivalLane="-gneE5_0" arrivalPos="85.60" arrivalSpeed="12.21" duration="43.00" routeLength="275.23" waitingTime="11.00" waitingCount="1" stopTime="0.00" timeLoss="19.67" rerouteNo="0" devices="tripinfo_53" vType="DEFAULT_VEHTYPE" speedFactor="0.90" vaporized=""/>
    <tripinfo id="51" depart="51.00" departLane="gneE20_0" departPos="5.10" departSpeed="0.00" departDelay="0.00" arrival="97.00" arrivalLane="gneE11_0" arrivalPos="92.80" arrivalSpeed="15.43" duration="46.00" routeLength="584.16" waitingTime="0.00" waitingCount="0" stopTime="0.00" timeLoss="9.03" rerouteNo="0" devices="tripinfo_51" vType="DEFAULT_VEHTYPE" speedFactor="1.18" vaporized=""/>
    <tripinfo id="90" depart="90.00" departLane="gneE23_0" departPos="5.10" departSpeed="0.00" departDelay="0.00" arrival="99.00" arrivalLane="gneE23_0" arrivalPos="89.60" arrivalSpeed="13.60" duration="9.00" routeLength="84.50" waitingTime="0.00" waitingCount="0" stopTime="0.00" timeLoss="3.01" rerouteNo="0" devices="tripinfo_90" vType="DEFAULT_VEHTYPE" speedFactor="1.02" vaporized=""/>
    <tripinfo id="56" depart="56.00" departLane="gneE0_0" departPos="5.10" departSpeed="0.00" departDelay="0.00" arrival="100.00" arrivalLane="-gneE20_0" arrivalPos="92.80" arrivalSpeed="14.81" duration="44.00" routeLength="284.16" waitingTime="13.00" waitingCount="1" stopTime="0.00" timeLoss="24.05" rerouteNo="0" devices="tripinfo_56" vType="DEFAULT_VEHTYPE" speedFactor="1.09" vaporized=""/>
    <tripinfo id="29" depart="31.00" departLane="-gneE22_0" departPos="5.10" departSpeed="0.00" departDelay="2.00" arrival="108.00" arrivalLane="-gneE38_0" arrivalPos="296.80" arrivalSpeed="13.15" duration="77.00" routeLength="883.56" waitingTime="0.00" waitingCount="0" stopTime="0.00" timeLoss="12.26" rerouteNo="0" devices="tripinfo_29" vType="DEFAULT_VEHTYPE" speedFactor="1.01" vaporized=""/>
    <tripinfo id="30" depart="30.00" departLane="gneE9_0" departPos="5.10" departSpeed="0.00" departDelay="0.00" arrival="108.00" arrivalLane="gneE2_0" arrivalPos="185.60" arrivalSpeed="13.01" duration="78.00" routeLength="379.13" waitingTime="40.00" waitingCount="1" stopTime="0.00" timeLoss="48.66" rerouteNo="0" devices="tripinfo_30" vType="DEFAULT_VEHTYPE" speedFactor="0.97" vaporized=""/>
    <tripinfo id="88" depart="89.00" departLane="-gneE17_0" departPos="5.10" departSpeed="0.00" departDelay="1.00" arrival="110.00" arrivalLane="-gneE5_0" arrivalPos="85.60" arrivalSpeed="12.12" duration="21.00" routeLength="182.33" waitingTime="0.00" waitingCount="0" stopTime="0.00" timeLoss="4.96" rerouteNo="0" devices="tripinfo_88" vType="DEFAULT_VEHTYPE" speedFactor="0.91" vaporized=""/>
    <tripinfo id="85" depart="85.00" departLane="gneE5_0" departPos="5.10" departSpeed="0.00" departDelay="0.00" arrival="112.00" arrivalLane="gneE13_0" arrivalPos="92.80" arrivalSpeed="11.95" duration="27.00" routeLength="287.49" waitingTime="0.00" waitingCount="0" stopTime="0.00" timeLoss="4.37" rerouteNo="0" devices="tripinfo_85" vType="DEFAULT_VEHTYPE" speedFactor="0.94" vaporized=""/>
    <tripinfo id="17" depart="17.00" departLane="-gneE36_0" departPos="5.10" departSpeed="0.00" departDelay="0.00" arrival="114.00" arrivalLane="gneE12_0" arrivalPos="85.60" arrivalSpeed="14.38" duration="97.00" routeLength="687.49" waitingTime="33.00" waitingCount="1" stopTime="0.00" timeLoss="51.80" rerouteNo="0" devices="tripinfo_17" vType="DEFAULT_VEHTYPE" speedFactor="1.12" vaporized=""/>
    <tripinfo id="60" depart="60.00" departLane="gneE25_0" departPos="5.10" departSpeed="0.00" departDelay="0.00" arrival="115.00" arrivalLane="gneE11_0" arrivalPos="92.80" arrivalSpeed="13.91" duration="55.00" routeLength="589.00" waitingTime="0.00" waitingCount="0" stopTime="0.00" timeLoss="12.07" rerouteNo="0" devices="tripinfo_60" vType="DEFAULT_VEHTYPE" speedFactor="1.09" vaporized=""/>
    <tripinfo id="19" depart="19.00" departLane="gneE35_0" departPos="5.10" departSpeed="0.00" departDelay="0.00" arrival="127.00" arrivalLane="gneE13_0" arrivalPos="92.80" arrivalSpeed="12.88" duration="108.00" routeLength="789.32" waitingTime="31.00" waitingCount="1" stopTime="0.00" timeLoss="48.69" rerouteNo="0" devices="tripinfo_19" vType="DEFAULT_VEHTYPE" speedFactor="0.99" vaporized=""/>
    <tripinfo id="25" depart="25.00" departLane="-gneE34_0" departPos="5.10" departSpeed="0.00" departDelay="0.00" arrival="130.00" arrivalLane="-gneE22_0" arrivalPos="85.60" arrivalSpeed="12.33" duration="105.00" routeLength="580.18" waitingTime="44.00" waitingCount="1" stopTime="0.00" timeLoss="58.12" rerouteNo="0" devices="tripinfo_25" vType="DEFAULT_VEHTYPE" speedFactor="0.94" vaporized=""/>
    <tripinfo id="86" depart="86.00" departLane="-gneE8_0" departPos="5.10" departSpeed="0.00" departDelay="0.00" arrival="138.00" arrivalLane="gneE3_0" arrivalPos="185.60" arrivalSpeed="11.14" duration="52.00" routeLength="375.13" waitingTime="2.00" waitingCount="1" stopTime="0.00" timeLoss="19.74" rerouteNo="0" devices="tripinfo_86" vType="DEFAULT_VEHTYPE" speedFactor="0.88" vaporized=""/>
    <tripinfo id="127" depart="131.00" departLane="gneE9_0" departPos="5.10" departSpeed="0.00" departDelay="4.00" arrival="141.00" arrivalLane="gneE9_0" arrivalPos="89.60" arrivalSpeed="12.41" duration="10.00" routeLength="84.50" waitingTime="0.00" waitingCount="0" stopTime="0.00" timeLoss="2.93" rerouteNo="0" devices="tripinfo_127" vType="DEFAULT_VEHTYPE" speedFactor="0.91" vaporized=""/>
    <tripinfo id="28" depart="28.00" departLane="-gneE22_0" departPos="5.10" departSpeed="0.00" departDelay="0.00" arrival="146.00" arrivalLane="gneE26_0" arrivalPos="92.80" arrivalSpeed="13.60" duration="118.00" routeLength="787.27" waitingTime="42.00" waitingCount="1" stopTime="0.00" timeLoss="59.07" rerouteNo="0" devices="tripinfo_28" vType="DEFAULT_VEHTYPE" speedFactor="1.02" vaporized=""/>
    <tripinfo id="15" depart="15.00" departLane="gneE3_0" departPos="5.10" departSpeed="0.00" departDelay="0.00" arrival="148.00" arrivalLane="gneE26_0" arrivalPos="92.80" arrivalSpeed="13.84" duration="133.00" routeLength="782.22" waitingTime="47.00" waitingCount="2" stopTime="0.00" timeLoss="76.04" rerouteNo="0" devices="tripinfo_15" vType="DEFAULT_VEHTYPE" speedFactor="1.03" vaporized=""/>
    <tripinfo id="50" depart="50.00" departLane="-gneE1_0" departPos="5.10" departSpeed="0.00" departDelay="0.00" arrival="151.00" arrivalLane="gneE26_0" arrivalPos="92.80" arrivalSpeed="13.51" duration="101.00" routeLength="876.85" waitingTime="10.00" waitingCount="1" stopTime="0.00" timeLoss="33.37" rerouteNo="0" devices="tripinfo_50" vType="DEFAULT_VEHTYPE" speedFactor="0.97" vaporized=""/>
    <tripinfo id="117" depart="117.00" departLane="-gneE27_0" departPos="5.10" departSpeed="0.00" departDelay="0.00" arrival="151.00" arrivalLane="-gneE17_0" arrivalPos="92.80" arrivalSpeed="13.88" duration="34.00" routeLength="387.59" waitingTime="0.00" waitingCount="0" stopTime="0.00" timeLoss="5.16" rerouteNo="0" devices="tripinfo_117" vType="DEFAULT_VEHTYPE" speedFactor="1.02" vaporized=""/>
    <tripinfo id="97" depart="97.00" departLane="-gneE6_0" departPos="5.10" departSpeed="0.00" departDelay="0.00" arrival="152.00" arrivalLane="gneE34_0" arrivalPos="85.60" arrivalSpeed="13.63" duration="55.00" routeLength="282.33" waitingTime="25.00" waitingCount="1" stopTime="0.00" timeLoss="34.71" rerouteNo="0" devices="tripinfo_97" vType="DEFAULT_VEHTYPE" speedFactor="1.06" vaporized=""/>
    <tripinfo id="45" depart="45.00" departLane="-gneE18_0" departPos="5.10" departSpeed="0.00" departDelay="0.00" arrival="154.00" arrivalLane="gneE2_0" arrivalPos="185.60" arrivalSpeed="9.80" duration="109.00" routeLength="865.93" waitingTime="17.00" waitingCount="1" stopTime="0.00" timeLoss="45.22" rerouteNo="0" devices="tripinfo_45" vType="DEFAULT_VEHTYPE" speedFactor="1.01" vaporized=""/>
    <tripinfo id="63" depart="63.00" departLane="-gneE10_0" departPos="5.10" departSpeed="0.00" departDelay="0.00" arrival="156.00" arrivalLane="gneE5_0" arrivalPos="85.60" arrivalSpeed="13.68" duration="93.00" routeLength="573.14" waitingTime="21.00" waitingCount="2" stopTime="0.00" timeLoss="50.19" rerouteNo="0" devices="tripinfo_63" vType="DEFAULT_VEHTYPE" speedFactor="1.00" vaporized=""/>
    <tripinfo id="11" depart="11.00" departLane="-gneE32_0" departPos="5.10" departSpeed="0.00" departDelay="0.00" arrival="158.00" arrivalLane="-gneE19_0" arrivalPos="92.80" arrivalSpeed="10.62" duration="147.00" routeLength="1010.21" waitingTime="42.00" waitingCount="1" stopTime="0.00" timeLoss="58.95" rerouteNo="0" devices="tripinfo_11" vType="DEFAULT_VEHTYPE" speedFactor="0.86" vaporized=""/>
    <tripinfo id="138" depart="138.00" departLane="-gneE17_0" departPos="5.10" departSpeed="0.00" departDelay="0.00" arrival="158.00" arrivalLane="gneE12_0" arrivalPos="85.60" arrivalSpeed="13.88" duration="20.00" routeLength="187.49" waitingTime="0.00" waitingCount="0" stopTime="0.00" timeLoss="5.39" rerouteNo="0" devices="tripinfo_138" vType="DEFAULT_VEHTYPE" speedFactor="1.01" vaporized=""/>
    <tripinfo id="87" depart="87.00" departLane="gneE3_0" departPos="5.10" departSpeed="0.00" departDelay="0.00" arrival="159.00" arrivalLane="-gneE21_0" arrivalPos="87.62" arrivalSpeed="11.98" duration="72.00" routeLength="576.83" waitingTime="5.00" waitingCount="1" stopTime="0.00" timeLoss="23.09" rerouteNo="0" devices="tripinfo_87" vType="DEFAULT_VEHTYPE" speedFactor="0.91" vaporized=""/>
    <tripinfo id="70" depart="71.00" departLane="-gneE8_0" departPos="5.10" departSpeed="0.00" departDelay="1.00" arrival="162.00" arrivalLane="gneE12_0" arrivalPos="85.60" arrivalSpeed="13.01" duration="91.00" routeLength="469.76" waitingTime="30.00" waitingCount="2" stopTime="0.00" timeLoss="55.14" rerouteNo="0" devices="tripinfo_70" vType="DEFAULT_VEHTYPE" speedFactor="1.02" vaporized=""/>
    <tripinfo id="26" depart="26.00" departLane="-gneE29_0" departPos="5.10" departSpeed="0.00" departDelay="0.00" arrival="163.00" arrivalLane="gneE5_0" arrivalPos="85.60" arrivalSpeed="12.49" duration="137.00" routeLength="707.67" waitingTime="55.00" waitingCount="3" stopTime="0.00" timeLoss="79.22" rerouteNo="0" devices="tripinfo_26" vType="DEFAULT_VEHTYPE" speedFactor="0.94" vaporized=""/>
    <tripinfo id="31" depart="31.00" departLane="gneE11_0" departPos="5.10" departSpeed="0.00" departDelay="0.00" arrival="167.00" arrivalLane="gneE23_0" arrivalPos="89.60" arrivalSpeed="11.61" duration="136.00" routeLength="875.51" waitingTime="40.00" waitingCount="2" stopTime="0.00" timeLoss="64.17" rerouteNo="0" devices="tripinfo_31" vType="DEFAULT_VEHTYPE" speedFactor="0.89" vaporized=""/>
    <tripinfo id="76" depart="76.00" departLane="-gneE6_0" departPos="5.10" departSpeed="0.00" departDelay="0.00" arrival="167.00" arrivalLane="gneE10_0" arrivalPos="96.80" arrivalSpeed="15.38" duration="91.00" routeLength="596.03" waitingTime="37.00" waitingCount="1" stopTime="0.00" timeLoss="51.66" rerouteNo="0" devices="tripinfo_76" vType="DEFAULT_VEHTYPE" speedFactor="1.14" vaporized=""/>
    <tripinfo id="121" depart="121.00" departLane="gneE1_0" departPos="5.10" departSpeed="0.00" departDelay="0.00" arrival="168.00" arrivalLane="gneE5_0" arrivalPos="85.60" arrivalSpeed="11.09" duration="47.00" routeLength="374.92" waitingTime="0.00" waitingCount="0" stopTime="0.00" timeLoss="12.28" rerouteNo="0" devices="tripinfo_121" vType="DEFAULT_VEHTYPE" speedFactor="0.83" vaporized=""/>
    <tripinfo id="136" depart="136.00" departLane="gneE2_0" departPos="5.10" departSpeed="0.00" departDelay="0.00" arrival="169.00" arrivalLane="gneE6_0" arrivalPos="92.80" arrivalSpeed="11.44" duration="33.00" routeLength="287.70" waitingTime="0.00" waitingCount="0" stopTime="0.00" timeLoss="9.60" rerouteNo="0" devices="tripinfo_136" vType="DEFAULT_VEHTYPE" speedFactor="0.89" vaporized=""/>
    <tripinfo id="125" depart="125.00" departLane="-gneE31_0" departPos="5.10" departSpeed="0.00" departDelay="0.00" arrival="174.00" arrivalLane="gneE28_0" arrivalPos="216.45" arrivalSpeed="13.67" duration="49.00" routeLength="503.77" waitingTime="0.00" waitingCount="0" stopTime="0.00" timeLoss="12.41" rerouteNo="0" devices="tripinfo_125" vType="DEFAULT_VEHTYPE" speedFactor="1.06" vaporized=""/>
    <tripinfo id="124" depart="124.00" departLane="gneE2_0" departPos="5.10" departSpeed="0.00" departDelay="0.00" arrival="176.00" arrivalLane="-gneE3_0" arrivalPos="185.60" arrivalSpeed="14.62" duration="52.00" routeLength="480.08" waitingTime="1.00" waitingCount="1" stopTime="0.00" timeLoss="18.76" rerouteNo="0" devices="tripinfo_124" vType="DEFAULT_VEHTYPE" speedFactor="1.09" vaporized=""/>
    <tripinfo id="94" depart="94.00" departLane="-gneE24_0" departPos="5.10" departSpeed="0.00" departDelay="0.00" arrival="177.00" arrivalLane="-gneE6_0" arrivalPos="92.80" arrivalSpeed="9.79" duration="83.00" routeLength="380.39" waitingTime="20.00" waitingCount="2" stopTime="0.00" timeLoss="53.53" rerouteNo="0" devices="tripinfo_94" vType="DEFAULT_VEHTYPE" speedFactor="0.97" vaporized=""/>
    <tripinfo id="71" depart="71.00" departLane="-gneE28_0" departPos="5.10" departSpeed="0.00" departDelay="0.00" arrival="180.00" arrivalLane="gneE34_0" arrivalPos="85.60" arrivalSpeed="14.24" duration="109.00" routeLength="699.16" waitingTime="33.00" waitingCount="3" stopTime="0.00" timeLoss="60.90" rerouteNo="0" devices="tripinfo_71" vType="DEFAULT_VEHTYPE" speedFactor="1.10" vaporized=""/>
    <tripinfo id="10" depart="12.00" departLane="gneE3_0" departPos="5.10" departSpeed="0.00" departDelay="2.00" arrival="193.00" arrivalLane="gneE24_0" arrivalPos="85.60" arrivalSpeed="10.05" duration="181.00" routeLength="669.65" waitingTime="86.00" waitingCount="4" stopTime="0.00" timeLoss="126.82" rerouteNo="0" devices="tripinfo_10" vType="DEFAULT_VEHTYPE" speedFactor="0.94" vaporized=""/>
    <tripinfo id="57" depart="62.00" departLane="gneE4_0" departPos="5.10" departSpeed="0.00" departDelay="5.00" arrival="196.00" arrivalLane="gneE34_0" arrivalPos="85.60" arrivalSpeed="14.30" duration="134.00" routeLength="664.18" waitingTime="50.00" waitingCount="3" stopTime="0.00" timeLoss="84.97" rerouteNo="0" devices="tripinfo_57" vType="DEFAULT_VEHTYPE" speedFactor="1.04" vaporized=""/>
    <tripinfo id="179" depart="179.00" departLane="-gneE17_0" departPos="5.10" departSpeed="0.00" departDelay="0.00" arrival="198.00" arrivalLane="-gneE5_0" arrivalPos="85.60" arrivalSpeed="14.60" duration="19.00" routeLength="182.33" waitingTime="0.00" waitingCount="0" stopTime="0.00" timeLoss="6.13" rerouteNo="0" devices="tripinfo_179" vType="DEFAULT_VEHTYPE" speedFactor="1.07" vaporized=""/>
    <tripinfo id="74" depart="76.00" departLane="-gneE24_0" departPos="5.10" departSpeed="0.00" departDelay="2.00" arrival="201.00" arrivalLane="-gneE3_0" arrivalPos="185.60" arrivalSpeed="11.88" duration="125.00" routeLength="674.81" waitingTime="31.00" waitingCount="3" stopTime="0.00" timeLoss="68.42" rerouteNo="0" devices="tripinfo_74" vType="DEFAULT_VEHTYPE" speedFactor="0.90" vaporized=""/>
    <tripinfo id="43" depart="43.00" departLane="gneE9_0" departPos="5.10" departSpeed="0.00" departDelay="0.00" arrival="205.00" arrivalLane="gneE1_0" arrivalPos="85.60" arrivalSpeed="5.07" duration="162.00" routeLength="778.50" waitingTime="76.00" waitingCount="4" stopTime="0.00" timeLoss="111.90" rerouteNo="0" devices="tripinfo_43" vType="DEFAULT_VEHTYPE" speedFactor="1.18" vaporized=""/>
    <tripinfo id="99" depart="99.00" departLane="gneE9_0" departPos="5.10" departSpeed="0.00" departDelay="0.00" arrival="205.00" arrivalLane="gneE32_0" arrivalPos="219.65" arrivalSpeed="12.46" duration="106.00" routeLength="1005.61" waitingTime="5.00" waitingCount="1" stopTime="0.00" timeLoss="31.40" rerouteNo="0" devices="tripinfo_99" vType="DEFAULT_VEHTYPE" speedFactor="0.98" vaporized=""/>
    <tripinfo id="134" depart="134.00" departLane="gneE19_0" departPos="5.10" departSpeed="0.00" departDelay="0.00" arrival="206.00" arrivalLane="-gneE0_0" arrivalPos="92.80" arrivalSpeed="12.80" duration="72.00" routeLength="394.48" waitingTime="27.00" waitingCount="1" stopTime="0.00" timeLoss="40.02" rerouteNo="0" devices="tripinfo_134" vType="DEFAULT_VEHTYPE" speedFactor="0.95" vaporized=""/>
    <tripinfo id="24" depart="24.00" departLane="gneE18_0" departPos="5.10" departSpeed="0.00" departDelay="0.00" arrival="215.00" arrivalLane="-gneE35_0" arrivalPos="292.80" arrivalSpeed="10.91" duration="191.00" routeLength="889.00" waitingTime="78.00" waitingCount="5" stopTime="0.00" timeLoss="114.63" rerouteNo="0" devices="tripinfo_24" vType="DEFAULT_VEHTYPE" speedFactor="0.88" vaporized=""/>
    <tripinfo id="164" depart="169.00" departLane="gneE3_0" departPos="5.10" departSpeed="0.00" departDelay="5.00" arrival="220.00" arrivalLane="gneE34_0" arrivalPos="85.60" arrivalSpeed="12.60" duration="51.00" routeLength="280.29" waitingTime="12.00" waitingCount="2" stopTime="0.00" timeLoss="31.51" rerouteNo="0" devices="tripinfo_164" vType="DEFAULT_VEHTYPE" speedFactor="1.10" vaporized=""/>
    <tripinfo id="38" depart="38.00" departLane="gneE4_0" departPos="5.10" departSpeed="0.00" departDelay="0.00" arrival="226.00" arrivalLane="-gneE7_0" arrivalPos="92.80" arrivalSpeed="11.94" duration="188.00" routeLength="587.17" waitingTime="113.00" waitingCount="3" stopTime="0.00" timeLoss="139.13" rerouteNo="0" devices="tripinfo_38" vType="DEFAULT_VEHTYPE" speedFactor="0.92" vaporized=""/>
    <tripinfo id="104" depart="104.00" departLane="-gneE36_0" departPos="5.10" departSpeed="0.00" departDelay="0.00" arrival="227.00" arrivalLane="gneE9_0" arrivalPos="89.60" arrivalSpeed="15.07" duration="123.00" routeLength="978.40" waitingTime="35.00" waitingCount="1" stopTime="0.00" timeLoss="55.61" rerouteNo="0" devices="tripinfo_104" vType="DEFAULT_VEHTYPE" speedFactor="1.09" vaporized=""/>
    <tripinfo id="148" depart="148.00" departLane="-gneE5_0" departPos="5.10" departSpeed="0.00" departDelay="0.00" arrival="227.00" arrivalLane="-gneE0_0" arrivalPos="92.80" arrivalSpeed="14.08" duration="79.00" routeLength="487.49" waitingTime="26.00" waitingCount="2" stopTime="0.00" timeLoss="45.24" rerouteNo="0" devices="tripinfo_148" vType="DEFAULT_VEHTYPE" speedFactor="1.10" vaporized=""/>
    <tripinfo id="54" depart="57.00" departLane="-gneE7_0" departPos="5.10" departSpeed="0.00" departDelay="3.00" arrival="231.00" arrivalLane="gneE7_0" arrivalPos="92.80" arrivalSpeed="7.62" duration="174.00" routeLength="964.38" waitingTime="69.00" waitingCount="3" stopTime="0.00" timeLoss="104.45" rerouteNo="0" devices="tripinfo_54" vType="DEFAULT_VEHTYPE" speedFactor="1.03" vaporized=""/>
    <tripinfo id="131" depart="132.00" departLane="-gneE34_0" departPos="5.10" departSpeed="0.00" departDelay="1.00" arrival="234.00" arrivalLane="-gneE2_0" arrivalPos="185.60" arrivalSpeed="5.49" duration="102.00" routeLength="375.13" waitingTime="56.00" waitingCount="2" stopTime="0.00" timeLoss="73.15" rerouteNo="0" devices="tripinfo_131" vType="DEFAULT_VEHTYPE" speedFactor="0.96" vaporized=""/>
    <tripinfo id="215" depart="215.00" departLane="-gneE17_0" departPos="5.10" departSpeed="0.00" departDelay="0.00" arrival="234.00" arrivalLane="-gneE5_0" arrivalPos="85.60" arrivalSpeed="14.13" duration="19.00" routeLength="182.33" waitingTime="0.00" waitingCount="0" stopTime="0.00" timeLoss="5.93" rerouteNo="0" devices="tripinfo_215" vType="DEFAULT_VEHTYPE" speedFactor="1.06" vaporized=""/>
    <tripinfo id="39" depart="40.00" departLane="-gneE28_0" departPos="5.10" departSpeed="0.00" departDelay="1.00" arrival="240.00" arrivalLane="-gneE24_0" arrivalPos="85.60" arrivalSpeed="12.99" duration="200.00" routeLength="1004.00" waitingTime="80.00" waitingCount="6" stopTime="0.00" timeLoss="119.33" rerouteNo="0" devices="tripinfo_39" vType="DEFAULT_VEHTYPE" speedFactor="0.95" vaporized=""/>
    <tripinfo id="161" depart="164.00" departLane="gneE3_0" departPos="5.10" departSpeed="0.00" departDelay="3.00" arrival="241.00" arrivalLane="gneE36_0" arrivalPos="292.80" arrivalSpeed="13.73" duration="77.00" routeLength="582.12" waitingTime="14.00" waitingCount="2" stopTime="0.00" timeLoss="33.58" rerouteNo="0" devices="tripinfo_161" vType="DEFAULT_VEHTYPE" speedFactor="0.99" vaporized=""/>
    <tripinfo id="194" depart="194.00" departLane="gneE6_0" departPos="5.10" departSpeed="0.00" departDelay="0.00" arrival="241.00" arrivalLane="gneE23_0" arrivalPos="89.60" arrivalSpeed="16.05" duration="47.00" routeLength="284.60" waitingTime="15.00" waitingCount="1" stopTime="0.00" timeLoss="28.81" rerouteNo="0" devices="tripinfo_194" vType="DEFAULT_VEHTYPE" speedFactor="1.16" vaporized=""/>
    <tripinfo id="93" depart="93.00" departLane="gneE35_0" departPos="5.10" departSpeed="0.00" departDelay="0.00" arrival="242.00" arrivalLane="-gneE24_0" arrivalPos="85.60" arrivalSpeed="13.26" duration="149.00" routeLength="982.01" waitingTime="51.00" waitingCount="2" stopTime="0.00" timeLoss="77.41" rerouteNo="0" devices="tripinfo_93" vType="DEFAULT_VEHTYPE" speedFactor="1.02" vaporized=""/>
    <tripinfo id="160" depart="160.00" departLane="gneE35_0" departPos="5.10" departSpeed="0.00" departDelay="0.00" arrival="248.00" arrivalLane="gneE8_0" arrivalPos="85.60" arrivalSpeed="13.57" duration="88.00" routeLength="776.75" waitingTime="10.00" waitingCount="1" stopTime="0.00" timeLoss="30.29" rerouteNo="0" devices="tripinfo_160" vType="DEFAULT_VEHTYPE" speedFactor="1.00" vaporized=""/>
    <tripinfo id="96" depart="96.00" departLane="-gneE27_0" departPos="5.10" departSpeed="0.00" departDelay="0.00" arrival="249.00" arrivalLane="gneE5_0" arrivalPos="85.60" arrivalSpeed="11.97" duration="153.00" routeLength="587.38" waitingTime="68.00" waitingCount="4" stopTime="0.00" timeLoss="105.72" rerouteNo="0" devices="tripinfo_96" vType="DEFAULT_VEHTYPE" speedFactor="0.94" vaporized=""/>
    <tripinfo id="176" depart="176.00" departLane="gneE6_0" departPos="5.10" departSpeed="0.00" departDelay="0.00" arrival="253.00" arrivalLane="-gneE17_0" arrivalPos="92.80" arrivalSpeed="15.03" duration="77.00" routeLength="469.96" waitingTime="32.00" waitingCount="1" stopTime="0.00" timeLoss="45.17" rerouteNo="0" devices="tripinfo_176" vType="DEFAULT_VEHTYPE" speedFactor="1.12" vaporized=""/>
    <tripinfo id="171" depart="171.00" departLane="-gneE10_0" departPos="5.10" departSpeed="0.00" departDelay="0.00" arrival="259.00" arrivalLane="-gneE21_0" arrivalPos="87.62" arrivalSpeed="15.62" duration="88.00" routeLength="780.42" waitingTime="14.00" waitingCount="1" stopTime="0.00" timeLoss="37.57" rerouteNo="0" devices="tripinfo_171" vType="DEFAULT_VEHTYPE" speedFactor="1.15" vaporized=""/>
    <tripinfo id="108" depart="108.00" departLane="gneE11_0" departPos="5.10" departSpeed="0.00" departDelay="0.00" arrival="260.00" arrivalLane="gneE25_0" arrivalPos="92.80" arrivalSpeed="12.57" duration="152.00" routeLength="965.93" waitingTime="54.00" waitingCount="2" stopTime="0.00" timeLoss="77.24" rerouteNo="0" devices="tripinfo_108" vType="DEFAULT_VEHTYPE" speedFactor="0.97" vaporized=""/>
    <tripinfo id="129" depart="129.00" departLane="-gneE28_0" departPos="5.10" departSpeed="0.00" departDelay="0.00" arrival="261.00" arrivalLane="gneE5_0" arrivalPos="85.60" arrivalSpeed="14.42" duration="132.00" routeLength="604.32" waitingTime="60.00" waitingCount="3" stopTime="0.00" timeLoss="89.20" rerouteNo="0" devices="tripinfo_129" vType="DEFAULT_VEHTYPE" speedFactor="1.10" vaporized=""/>
    <tripinfo id="78" depart="78.00" departLane="-gneE32_0" departPos="5.10" departSpeed="0.00" departDelay="0.00" arrival="269.00" arrivalLane="gneE14_0" arrivalPos="89.60" arrivalSpeed="13.30" duration="191.00" routeLength="912.38" waitingTime="70.00" waitingCount="4" stopTime="0.00" timeLoss="125.05" rerouteNo="0" devices="tripinfo_78" vType="DEFAULT_VEHTYPE" speedFactor="1.02" vaporized=""/>
    <tripinfo id="137" depart="137.00" departLane="-gneE2_0" departPos="5.10" departSpeed="0.00" departDelay="0.00" arrival="270.00" arrivalLane="-gneE17_0" arrivalPos="92.80" arrivalSpeed="14.78" duration="133.00" routeLength="1053.64" waitingTime="14.00" waitingCount="3" stopTime="0.00" timeLoss="58.22" rerouteNo="0" devices="tripinfo_137" vType="DEFAULT_VEHTYPE" speedFactor="1.07" vaporized=""/>
    <tripinfo id="169" depart="169.00" departLane="-gneE7_0" departPos="5.10" departSpeed="0.00" departDelay="0.00" arrival="272.00" arrivalLane="-gneE3_0" arrivalPos="185.60" arrivalSpeed="13.86" duration="103.00" routeLength="475.02" waitingTime="48.00" waitingCount="2" stopTime="0.00" timeLoss="68.99" rerouteNo="0" devices="tripinfo_169" vType="DEFAULT_VEHTYPE" speedFactor="1.06" vaporized=""/>
    <tripinfo id="163" depart="163.00" departLane="-gneE32_0" departPos="5.10" departSpeed="0.00" departDelay="0.00" arrival="274.00" arrivalLane="gneE5_0" arrivalPos="85.60" arrivalSpeed="12.11" duration="111.00" routeLength="708.38" waitingTime="22.00" waitingCount="2" stopTime="0.00" timeLoss="54.70" rerouteNo="0" devices="tripinfo_163" vType="DEFAULT_VEHTYPE" speedFactor="0.94" vaporized=""/>
    <tripinfo id="139" depart="139.00" departLane="-gneE29_0" departPos="5.10" departSpeed="0.00" departDelay="0.00" arrival="275.00" arrivalLane="gneE17_0" arrivalPos="92.80" arrivalSpeed="13.73" duration="136.00" routeLength="814.66" waitingTime="37.00" waitingCount="3" stopTime="0.00" timeLoss="76.20" rerouteNo="0" devices="tripinfo_139" vType="DEFAULT_VEHTYPE" speedFactor="1.03" vaporized=""/>
    <tripinfo id="220" depart="220.00" departLane="gneE2_0" departPos="5.10" departSpeed="0.00" departDelay="0.00" arrival="276.00" arrivalLane="gneE9_0" arrivalPos="89.60" arrivalSpeed="14.89" duration="56.00" routeLength="666.04" waitingTime="0.00" waitingCount="0" stopTime="0.00" timeLoss="12.32" rerouteNo="0" devices="tripinfo_220" vType="DEFAULT_VEHTYPE" speedFactor="1.14" vaporized=""/>
    <tripinfo id="201" depart="201.00" departLane="-gneE8_0" departPos="5.10" departSpeed="0.00" departDelay="0.00" arrival="278.00" arrivalLane="gneE4_0" arrivalPos="85.60" arrivalSpeed="10.17" duration="77.00" routeLength="469.76" waitingTime="23.00" waitingCount="1" stopTime="0.00" timeLoss="36.27" rerouteNo="0" devices="tripinfo_201" vType="DEFAULT_VEHTYPE" speedFactor="0.89" vaporized=""/>