<?xml version="1.0" encoding="UTF-8"?>

<!-- generated on 2024-07-18 00:29:38 by Eclipse SUMO sumo Version 1.20.0
<configuration xmlns:xsi="http://www.w3.org/2001/XMLSchema-instance" xsi:noNamespaceSchemaLocation="http://sumo.dlr.de/xsd/sumoConfiguration.xsd">

    <input>
        <net-file value="maps/city1.net.xml"/>
        <route-files value="maps/city1.rou.xml"/>
    </input>

    <output>
        <tripinfo-output value="tripinfo.xml"/>
    </output>

    <time>
        <begin value="0"/>
        <end value="200"/>
    </time>

    <report>
        <verbose value="true"/>
        <no-step-log value="true"/>
    </report>

    <traci_server>
        <remote-port value="49519"/>
    </traci_server>

</configuration>
-->

<tripinfos xmlns:xsi="http://www.w3.org/2001/XMLSchema-instance" xsi:noNamespaceSchemaLocation="http://sumo.dlr.de/xsd/tripinfo_file.xsd">
    <tripinfo id="13" depart="13.00" departLane="-gneE14_0" departPos="5.10" departSpeed="0.00" departDelay="0.00" arrival="23.00" arrivalLane="-gneE14_0" arrivalPos="89.60" arrivalSpeed="14.27" duration="10.00" routeLength="84.50" waitingTime="0.00" waitingCount="0" stopTime="0.00" timeLoss="3.61" rerouteNo="0" devices="tripinfo_13" vType="DEFAULT_VEHTYPE" speedFactor="1.09" vaporized=""/>
    <tripinfo id="4" depart="4.00" departLane="-gneE5_0" departPos="5.10" departSpeed="0.00" departDelay="0.00" arrival="55.00" arrivalLane="-gneE1_0" arrivalPos="85.60" arrivalSpeed="12.98" duration="51.00" routeLength="374.92" waitingTime="12.00" waitingCount="1" stopTime="0.00" timeLoss="22.37" rerouteNo="0" devices="tripinfo_4" vType="DEFAULT_VEHTYPE" speedFactor="1.01" vaporized=""/>
    <tripinfo id="0" depart="0.00" departLane="gneE18_0" departPos="5.10" departSpeed="0.00" departDelay="0.00" arrival="71.00" arrivalLane="-gneE1_0" arrivalPos="85.60" arrivalSpeed="14.06" duration="71.00" routeLength="682.01" waitingTime="7.00" waitingCount="1" stopTime="0.00" timeLoss="22.51" rerouteNo="0" devices="tripinfo_0" vType="DEFAULT_VEHTYPE" speedFactor="1.06" vaporized=""/>
    <tripinfo id="6" depart="6.00" departLane="-gneE10_0" departPos="5.10" departSpeed="0.00" departDelay="0.00" arrival="78.00" arrivalLane="-gneE21_0" arrivalPos="87.62" arrivalSpeed="13.69" duration="72.00" routeLength="780.42" waitingTime="0.00" waitingCount="0" stopTime="0.00" timeLoss="15.76" rerouteNo="0" devices="tripinfo_6" vType="DEFAULT_VEHTYPE" speedFactor="1.03" vaporized=""/>
    <tripinfo id="9" depart="9.00" departLane="gneE3_0" departPos="5.10" departSpeed="0.00" departDelay="0.00" arrival="79.00" arrivalLane="-gneE0_0" arrivalPos="92.80" arrivalSpeed="11.76" duration="70.00" routeLength="671.38" waitingTime="0.00" waitingCount="0" stopTime="0.00" timeLoss="11.67" rerouteNo="0" devices="tripinfo_9" vType="DEFAULT_VEHTYPE" speedFactor="0.89" vaporized=""/>
    <tripinfo id="7" depart="7.00" departLane="gneE19_0" departPos="5.10" departSpeed="0.00" departDelay="0.00" arrival="81.00" arrivalLane="gneE11_0" arrivalPos="92.80" arrivalSpeed="11.17" duration="74.00" routeLength="678.58" waitingTime="0.00" waitingCount="0" stopTime="0.00" timeLoss="11.68" rerouteNo="0" devices="tripinfo_7" vType="DEFAULT_VEHTYPE" speedFactor="0.83" vaporized=""/>
    <tripinfo id="52" depart="52.00" departLane="-gneE29_0" departPos="5.10" departSpeed="0.00" departDelay="0.00" arrival="96.00" arrivalLane="gneE21_0" arrivalPos="87.62" arrivalSpeed="7.21" duration="44.00" routeLength="413.15" waitingTime="1.00" waitingCount="1" stopTime="0.00" timeLoss="15.89" rerouteNo="0" devices="tripinfo_52" vType="DEFAULT_VEHTYPE" speedFactor="1.10" vaporized=""/>
    <tripinfo id="53" depart="53.00" departLane="-gneE18_0" departPos="5.10" departSpeed="0.00" departDelay="0.00" arrival="96.00" arrivalLane="-gneE5_0" arrivalPos="85.60" arrivalSpeed="12.21" duration="43.00" routeLength="275.23" waitingTime="11.00" waitingCount="1" stopTime="0.00" timeLoss="19.67" rerouteNo="0" devices="tripinfo_53" vType="DEFAULT_VEHTYPE" speedFactor="0.90" vaporized=""/>
    <tripinfo id="51" depart="51.00" departLane="gneE20_0" departPos="5.10" departSpeed="0.00" departDelay="0.00" arrival="97.00" arrivalLane="gneE11_0" arrivalPos="92.80" arrivalSpeed="15.43" duration="46.00" routeLength="584.16" waitingTime="0.00" waitingCount="0" stopTime="0.00" timeLoss="9.03" rerouteNo="0" devices="tripinfo_51" vType="DEFAULT_VEHTYPE" speedFactor="1.18" vaporized=""/>
    <tripinfo id="90" depart="90.00" departLane="gneE23_0" departPos="5.10" departSpeed="0.00" departDelay="0.00" arrival="99.00" arrivalLane="gneE23_0" arrivalPos="89.60" arrivalSpeed="13.60" duration="9.00" routeLength="84.50" waitingTime="0.00" waitingCount="0" stopTime="0.00" timeLoss="3.01" rerouteNo="0" devices="tripinfo_90" vType="DEFAULT_VEHTYPE" speedFactor="1.02" vaporized=""/>
    <tripinfo id="56" depart="56.00" departLane="gneE0_0" departPos="5.10" departSpeed="0.00" departDelay="0.00" arrival="100.00" arrivalLane="-gneE20_0" arrivalPos="92.80" arrivalSpeed="14.81" duration="44.00" routeLength="284.16" waitingTime="13.00" waitingCount="1" stopTime="0.00" timeLoss="24.05" rerouteNo="0" devices="tripinfo_56" vType="DEFAULT_VEHTYPE" speedFactor="1.09" vaporized=""/>
</tripinfos>
